                               Psi4 1.4a2.dev37

  ==> Input File <==

--------------------------------------------------------------------------
# PSI4 file produced by CrystaLattE

# Generated from:               Ammonia.xyz
# Psithon input for N-mer:      3mer-0+1+2
# Number of atoms per monomer:  [4, 4, 4]
# Number of replicas:           3
# COM priority:                 2.378218916793e-08
# Minimum COM separations:      3.418  3.883  3.883
# Separation priority:          7.570854620128e-07
# Minimum monomer separations:  2.428  2.588  2.588
# Cutoff priority:              6.255109050478e-07
# Nuclear repulsion energy:     79.5638545934053 a.u.

memory 500 MB

molecule Trimer_0_1_2 {
  N           -1.68115516      -1.68115516      -1.68115516
  H           -2.60026315      -0.14736840      -1.13434212
  H           -1.13434212      -2.60026315      -0.14736840
  H           -0.14736840      -1.13434212      -2.60026315
--
  N            3.92851196       3.16646478      -0.91910799
  H            2.39472520       3.71327782       0.00000000
  H            4.84761994       4.70025154      -1.46592103
  H            3.38169892       2.24735679      -2.45289475
--
  N            3.16646478      -0.91910799       3.92851196
  H            2.24735679      -2.45289475       3.38169892
  H            3.71327782       0.00000000       2.39472520
  H            4.70025154      -1.46592103       4.84761994
units = au
no_com
no_reorient
}

set {
  e_convergence 9
  scf_type df
  mp2_type df
  cc_type df
  freeze_core true
}

energy('scf/STO-3G', bsse_type = 'nocp')

--------------------------------------------------------------------------

    Molecular point group: c1
  Charge       = 0
  Multiplicity = 1
  Basis Set: STO-3G
    Blend: STO-3G
  Basis Set: (STO-3G AUX)
    Blend: DEF2-SVP-JKFIT
  @DF-RHF Final Energy:   -55.44996535919856
    Total Energy =                        -55.4499653591985648
    Molecular point group: c1
  Basis Set: STO-3G
    Blend: STO-3G
  Basis Set: (STO-3G AUX)
    Blend: DEF2-SVP-JKFIT
  @DF-RHF Final Energy:   -55.44996535920036
    Total Energy =                        -55.4499653592003554
  Basis Set: STO-3G
    Blend: STO-3G
  Basis Set: (STO-3G AUX)
    Blend: DEF2-SVP-JKFIT
  @DF-RHF Final Energy:   -55.44996535937439
    Total Energy =                        -55.4499653593743886
  Basis Set: STO-3G
    Blend: STO-3G
  Basis Set: (STO-3G AUX)
    Blend: DEF2-SVP-JKFIT
  @DF-RHF Final Energy:  -110.89959661386969
    Total Energy =                       -110.8995966138696900
  Basis Set: STO-3G
    Blend: STO-3G
  Basis Set: (STO-3G AUX)
    Blend: DEF2-SVP-JKFIT
  @DF-RHF Final Energy:  -110.90321507811439
    Total Energy =                       -110.9032150781143855
  Multiplicity = 1
  Basis Set: STO-3G
    Blend: STO-3G
  Basis Set: (STO-3G AUX)
    Blend: DEF2-SVP-JKFIT
  @DF-RHF Final Energy:  -110.89959661387148
    Total Energy =                       -110.8995966138714806
    Molecular point group: c1

    Geometry (in Bohr), charge = 0, multiplicity = 1:

       Center              X                  Y                   Z               Mass
    ------------   -----------------  -----------------  -----------------  -----------------
         N           -1.681155160000    -1.681155160000    -1.681155160000    14.003074004430
         H           -2.600263150000    -0.147368400000    -1.134342120000     1.007825032230
         H           -1.134342120000    -2.600263150000    -0.147368400000     1.007825032230
         H           -0.147368400000    -1.134342120000    -2.600263150000     1.007825032230
         N            3.928511960000     3.166464780000    -0.919107990000    14.003074004430
         H            2.394725200000     3.713277820000     0.000000000000     1.007825032230
         H            4.847619940000     4.700251540000    -1.465921030000     1.007825032230
         H            3.381698920000     2.247356790000    -2.452894750000     1.007825032230
         N            3.166464780000    -0.919107990000     3.928511960000    14.003074004430
         H            2.247356790000    -2.452894750000     3.381698920000     1.007825032230
         H            3.713277820000     0.000000000000     2.394725200000     1.007825032230
         H            4.700251540000    -1.465921030000     4.847619940000     1.007825032230

  Charge       = 0
  Multiplicity = 1
  Basis Set: STO-3G
    Blend: STO-3G
  Basis Set: (STO-3G AUX)
    Blend: DEF2-SVP-JKFIT

    Orbital Energies [Eh]
    ---------------------

    Doubly Occupied:

       1A    -15.316236     2A    -15.305068     3A    -15.287949
       4A     -1.115956     5A     -1.104386     6A     -1.090622
       7A     -0.603323     8A     -0.601738     9A     -0.590270
      10A     -0.587862    11A     -0.575658    12A     -0.571315
      13A     -0.369082    14A     -0.355797    15A     -0.342971

  @DF-RHF Final Energy:  -166.35249854853254

   => Energetics <=

    Nuclear Repulsion Energy =             79.5638545896473772
    One-Electron Energy =                -384.1962411383239555
    Two-Electron Energy =                 138.2798880001440125
    Total Energy =                       -166.3524985485325374

  Dipole Moment: [D]
     X:     1.0428      Y:     1.1684      Z:    -1.0886     Total:     1.9073

*** Psi4 exiting successfully. Buy a developer a beer!
