                               Psi4 1.4a2.dev37

  ==> Input File <==

--------------------------------------------------------------------------
# PSI4 file produced by CrystaLattE

# Generated from:               Ammonia.xyz
# Psithon input for N-mer:      4mer-0+1+2+3
# Number of atoms per monomer:  [4, 4, 4, 4]
# Number of replicas:           1
# COM priority:                 8.289215938604e-16
# Minimum COM separations:      3.418  3.418  3.418  3.883  3.883  3.883
# Separation priority:          6.937449498782e-13
# Minimum monomer separations:  2.428  2.428  2.428  2.588  2.588  2.588
# Cutoff priority:              9.355871346218e-12
# Nuclear repulsion energy:     136.3717727214002 a.u.

memory 500 MB

molecule Tetramer_0_1_2_3 {
  N           -1.68115516      -1.68115516      -1.68115516
  H           -2.60026315      -0.14736840      -1.13434212
  H           -1.13434212      -2.60026315      -0.14736840
  H           -0.14736840      -1.13434212      -2.60026315
--
  N            3.92851196       3.16646478      -0.91910799
  H            2.39472520       3.71327782       0.00000000
  H            4.84761994       4.70025154      -1.46592103
  H            3.38169892       2.24735679      -2.45289475
--
  N            3.16646478      -0.91910799       3.92851196
  H            2.24735679      -2.45289475       3.38169892
  H            3.71327782       0.00000000       2.39472520
  H            4.70025154      -1.46592103       4.84761994
--
  N           -0.91910799       3.92851196       3.16646478
  H           -1.46592103       4.84761994       4.70025154
  H           -2.45289475       3.38169892       2.24735679
  H            0.00000000       2.39472520       3.71327782
units = au
no_com
no_reorient
}

set {
  e_convergence 9
  scf_type df
  mp2_type df
  cc_type df
  freeze_core true
}

energy('scf/STO-3G', bsse_type = 'nocp')

--------------------------------------------------------------------------

    Molecular point group: c1
  Charge       = 0
  Multiplicity = 1
  Basis Set: STO-3G
    Blend: STO-3G
  Basis Set: (STO-3G AUX)
    Blend: DEF2-SVP-JKFIT
  @DF-RHF Final Energy:   -55.44996535918813
    Total Energy =                        -55.4499653591881270
    Molecular point group: c1
  Basis Set: STO-3G
    Blend: STO-3G
  Basis Set: (STO-3G AUX)
    Blend: DEF2-SVP-JKFIT
  @DF-RHF Final Energy:   -55.44996535919859
    Total Energy =                        -55.4499653591985862
  Basis Set: STO-3G
    Blend: STO-3G
  Basis Set: (STO-3G AUX)
    Blend: DEF2-SVP-JKFIT
  @DF-RHF Final Energy:   -55.44996535920034
    Total Energy =                        -55.4499653592003412
  Basis Set: STO-3G
    Blend: STO-3G
  Basis Set: (STO-3G AUX)
    Blend: DEF2-SVP-JKFIT
  @DF-RHF Final Energy:   -55.44996535937442
    Total Energy =                        -55.4499653593744171
  @DF-RHF Final Energy:  -110.89959661386975
    Total Energy =                       -110.8995966138697469
  @DF-RHF Final Energy:  -110.90321507813410
    Total Energy =                       -110.9032150781340960
  @DF-RHF Final Energy:  -110.89959661387141
    Total Energy =                       -110.8995966138714095
  @DF-RHF Final Energy:  -110.89959661386369
    Total Energy =                       -110.8995966138636931
  @DF-RHF Final Energy:  -110.90321507811439
    Total Energy =                       -110.9032150781143855
  @DF-RHF Final Energy:  -110.90321507810719
    Total Energy =                       -110.9032150781071948
  @DF-RHF Final Energy:  -166.36040575159944
    Total Energy =                       -166.3604057515994441
  Basis Set: STO-3G
    Blend: STO-3G
  Basis Set: (STO-3G AUX)
    Blend: DEF2-SVP-JKFIT
  @DF-RHF Final Energy:  -166.35249854844895
    Total Energy =                       -166.3524985484489491
  Basis Set: STO-3G
    Blend: STO-3G
  Basis Set: (STO-3G AUX)
    Blend: DEF2-SVP-JKFIT
  @DF-RHF Final Energy:  -166.35249854853262
    Total Energy =                       -166.3524985485326226
  Multiplicity = 1
  Basis Set: STO-3G
    Blend: STO-3G
  Basis Set: (STO-3G AUX)
    Blend: DEF2-SVP-JKFIT
  @DF-RHF Final Energy:  -166.35249854843994
    Total Energy =                       -166.3524985484399394
    Molecular point group: c1

    Geometry (in Bohr), charge = 0, multiplicity = 1:

       Center              X                  Y                   Z               Mass
    ------------   -----------------  -----------------  -----------------  -----------------
         N           -1.681155160000    -1.681155160000    -1.681155160000    14.003074004430
         H           -2.600263150000    -0.147368400000    -1.134342120000     1.007825032230
         H           -1.134342120000    -2.600263150000    -0.147368400000     1.007825032230
         H           -0.147368400000    -1.134342120000    -2.600263150000     1.007825032230
         N            3.928511960000     3.166464780000    -0.919107990000    14.003074004430
         H            2.394725200000     3.713277820000     0.000000000000     1.007825032230
         H            4.847619940000     4.700251540000    -1.465921030000     1.007825032230
         H            3.381698920000     2.247356790000    -2.452894750000     1.007825032230
         N            3.166464780000    -0.919107990000     3.928511960000    14.003074004430
         H            2.247356790000    -2.452894750000     3.381698920000     1.007825032230
         H            3.713277820000     0.000000000000     2.394725200000     1.007825032230
         H            4.700251540000    -1.465921030000     4.847619940000     1.007825032230
         N           -0.919107990000     3.928511960000     3.166464780000    14.003074004430
         H           -1.465921030000     4.847619940000     4.700251540000     1.007825032230
         H           -2.452894750000     3.381698920000     2.247356790000     1.007825032230
         H            0.000000000000     2.394725200000     3.713277820000     1.007825032230

  Charge       = 0
  Multiplicity = 1
  Basis Set: STO-3G
    Blend: STO-3G
  Basis Set: (STO-3G AUX)
    Blend: DEF2-SVP-JKFIT

    Orbital Energies [Eh]
    ---------------------

    Doubly Occupied:

       1A    -15.307363     2A    -15.295209     3A    -15.295118
       4A    -15.295118     5A     -1.107370     6A     -1.102083
       7A     -1.095542     8A     -1.095542     9A     -0.598823
      10A     -0.594856    11A     -0.594856    12A     -0.584480
      13A     -0.581977    14A     -0.581977    15A     -0.571087
      16A     -0.571087    17A     -0.357920    18A     -0.356120
      19A     -0.356120    20A     -0.344877

  @DF-RHF Final Energy:  -221.80932530853559

   => Energetics <=

    Nuclear Repulsion Energy =            136.3717726960190930
    One-Electron Energy =                -572.9871424379525706
    Two-Electron Energy =                 214.8060444333978865
    Total Energy =                       -221.8093253085355911

  Dipole Moment: [D]
     X:     0.0873      Y:     0.0873      Z:     0.0873     Total:     0.1512

*** Psi4 exiting successfully. Buy a developer a beer!
