                               Psi4 1.4a2.dev37

  ==> Input File <==

--------------------------------------------------------------------------
# PSI4 file produced by CrystaLattE

# Generated from:               Ammonia.xyz
# Psithon input for N-mer:      5mer-0+1+2+3+4
# Number of atoms per monomer:  [4, 4, 4, 4, 4]
# Number of replicas:           3
# COM priority:                 3.243502050379e-27
# Minimum COM separations:      3.418  3.418  3.418  3.883  3.883  3.883  3.883  3.883  5.131  6.434
# Separation priority:          1.441820074806e-22
# Minimum monomer separations:  2.428  2.428  2.428  2.588  2.588  2.588  2.588  2.588  3.945  5.012
# Cutoff priority:              4.005201132751e-25
# Nuclear repulsion energy:     194.64346937372983 a.u.

memory 500 MB

molecule Pentamer_0_1_2_3_4 {
  N           -1.68115516      -1.68115516      -1.68115516
  H           -2.60026315      -0.14736840      -1.13434212
  H           -1.13434212      -2.60026315      -0.14736840
  H           -0.14736840      -1.13434212      -2.60026315
--
  N            3.92851196       3.16646478      -0.91910799
  H            2.39472520       3.71327782       0.00000000
  H            4.84761994       4.70025154      -1.46592103
  H            3.38169892       2.24735679      -2.45289475
--
  N            3.16646478      -0.91910799       3.92851196
  H            2.24735679      -2.45289475       3.38169892
  H            3.71327782       0.00000000       2.39472520
  H            4.70025154      -1.46592103       4.84761994
--
  N           -0.91910799       3.92851196       3.16646478
  H           -1.46592103       4.84761994       4.70025154
  H           -2.45289475       3.38169892       2.24735679
  H            0.00000000       2.39472520       3.71327782
--
  N            3.92851196      -6.52877511      -0.91910799
  H            2.39472520      -5.98196207       0.00000000
  H            4.84761994      -4.99498835      -1.46592103
  H            3.38169892      -7.44788309      -2.45289475
units = au
no_com
no_reorient
}

set {
  e_convergence 9
  scf_type df
  mp2_type df
  cc_type df
  freeze_core true
}

energy('scf/STO-3G', bsse_type = 'nocp')

--------------------------------------------------------------------------

    Molecular point group: c1
  Charge       = 0
  Multiplicity = 1
  Basis Set: STO-3G
    Blend: STO-3G
  Basis Set: (STO-3G AUX)
    Blend: DEF2-SVP-JKFIT
  @DF-RHF Final Energy:   -55.44996535918814
    Total Energy =                        -55.4499653591881412
    Molecular point group: c1
  Basis Set: STO-3G
    Blend: STO-3G
  Basis Set: (STO-3G AUX)
    Blend: DEF2-SVP-JKFIT
  @DF-RHF Final Energy:   -55.44996535937442
    Total Energy =                        -55.4499653593744242
  Basis Set: STO-3G
    Blend: STO-3G
  Basis Set: (STO-3G AUX)
    Blend: DEF2-SVP-JKFIT
  @DF-RHF Final Energy:   -55.44996535919859
    Total Energy =                        -55.4499653591985933
  Basis Set: STO-3G
    Blend: STO-3G
  Basis Set: (STO-3G AUX)
    Blend: DEF2-SVP-JKFIT
  @DF-RHF Final Energy:   -55.44996535898913
    Total Energy =                        -55.4499653589891324
  @DF-RHF Final Energy:   -55.44996535920038
    Total Energy =                        -55.4499653592003767
  @DF-RHF Final Energy:  -110.89959661386978
    Total Energy =                       -110.8995966138697753
  @DF-RHF Final Energy:  -110.89959661387141
    Total Energy =                       -110.8995966138714095
  @DF-RHF Final Energy:  -110.90321507813405
    Total Energy =                       -110.9032150781340533
  @DF-RHF Final Energy:  -110.89998955899128
    Total Energy =                       -110.8999895589912796
  @DF-RHF Final Energy:  -110.90321507811448
    Total Energy =                       -110.9032150781144850
  @DF-RHF Final Energy:  -110.90321507810719
    Total Energy =                       -110.9032150781071948
  @DF-RHF Final Energy:  -110.89995246936260
    Total Energy =                       -110.8999524693626029
  @DF-RHF Final Energy:  -110.89959661386376
    Total Energy =                       -110.8995966138637641
  @DF-RHF Final Energy:  -110.89959661347888
    Total Energy =                       -110.8995966134788773
  @DF-RHF Final Energy:  -110.89959661365893
    Total Energy =                       -110.8995966136589288
  @DF-RHF Final Energy:  -166.34893425517632
    Total Energy =                       -166.3489342551763173
  @DF-RHF Final Energy:  -166.35286459269125
    Total Energy =                       -166.3528645926912475
  @DF-RHF Final Energy:  -166.34927478193308
    Total Energy =                       -166.3492747819330759
  @DF-RHF Final Energy:  -166.35249854843994
    Total Energy =                       -166.3524985484399394
  @DF-RHF Final Energy:  -166.36040575159936
    Total Energy =                       -166.3604057515993588
  @DF-RHF Final Energy:  -166.35328765636956
    Total Energy =                       -166.3532876563695595
  @DF-RHF Final Energy:  -166.35249854844861
    Total Energy =                       -166.3524985484486081
  @DF-RHF Final Energy:  -166.35286879996704
    Total Energy =                       -166.3528687999670410
  @DF-RHF Final Energy:  -166.35249854853265
    Total Energy =                       -166.3524985485326511
  @DF-RHF Final Energy:  -166.34924986272139
    Total Energy =                       -166.3492498627213934
  @DF-RHF Final Energy:  -221.81010455645563
    Total Energy =                       -221.8101045564556273
  @DF-RHF Final Energy:  -221.80932530853553
    Total Energy =                       -221.8093253085355343
  Basis Set: STO-3G
    Blend: STO-3G
  Basis Set: (STO-3G AUX)
    Blend: DEF2-SVP-JKFIT
  @DF-RHF Final Energy:  -221.80186083920330
    Total Energy =                       -221.8018608392033002
  Basis Set: STO-3G
    Blend: STO-3G
  Basis Set: (STO-3G AUX)
    Blend: DEF2-SVP-JKFIT
  @DF-RHF Final Energy:  -221.80184022003954
    Total Energy =                       -221.8018402200395371
  Multiplicity = 1
  Basis Set: STO-3G
    Blend: STO-3G
  Basis Set: (STO-3G AUX)
    Blend: DEF2-SVP-JKFIT
  @DF-RHF Final Energy:  -221.80222440765834
    Total Energy =                       -221.8022244076583434
    Molecular point group: c1

    Geometry (in Bohr), charge = 0, multiplicity = 1:

       Center              X                  Y                   Z               Mass
    ------------   -----------------  -----------------  -----------------  -----------------
         N           -1.681155160000    -1.681155160000    -1.681155160000    14.003074004430
         H           -2.600263150000    -0.147368400000    -1.134342120000     1.007825032230
         H           -1.134342120000    -2.600263150000    -0.147368400000     1.007825032230
         H           -0.147368400000    -1.134342120000    -2.600263150000     1.007825032230
         N            3.928511960000     3.166464780000    -0.919107990000    14.003074004430
         H            2.394725200000     3.713277820000     0.000000000000     1.007825032230
         H            4.847619940000     4.700251540000    -1.465921030000     1.007825032230
         H            3.381698920000     2.247356790000    -2.452894750000     1.007825032230
         N            3.166464780000    -0.919107990000     3.928511960000    14.003074004430
         H            2.247356790000    -2.452894750000     3.381698920000     1.007825032230
         H            3.713277820000     0.000000000000     2.394725200000     1.007825032230
         H            4.700251540000    -1.465921030000     4.847619940000     1.007825032230
         N           -0.919107990000     3.928511960000     3.166464780000    14.003074004430
         H           -1.465921030000     4.847619940000     4.700251540000     1.007825032230
         H           -2.452894750000     3.381698920000     2.247356790000     1.007825032230
         H            0.000000000000     2.394725200000     3.713277820000     1.007825032230
         N            3.928511960000    -6.528775110000    -0.919107990000    14.003074004430
         H            2.394725200000    -5.981962070000     0.000000000000     1.007825032230
         H            4.847619940000    -4.994988350000    -1.465921030000     1.007825032230
         H            3.381698920000    -7.447883090000    -2.452894750000     1.007825032230

  Charge       = 0
  Multiplicity = 1
  Basis Set: STO-3G
    Blend: STO-3G
  Basis Set: (STO-3G AUX)
    Blend: DEF2-SVP-JKFIT

    Orbital Energies [Eh]
    ---------------------

    Doubly Occupied:

       1A    -15.315988     2A    -15.307604     3A    -15.299109
       4A    -15.297526     5A    -15.297202     6A     -1.115789
       7A     -1.107144     8A     -1.105275     9A     -1.098792
      10A     -1.097614    11A     -0.605139    12A     -0.602374
      13A     -0.601532    14A     -0.591847    15A     -0.591048
      16A     -0.587512    17A     -0.585651    18A     -0.584327
      19A     -0.574197    20A     -0.573283    21A     -0.366377
      22A     -0.359574    23A     -0.358793    24A     -0.357824
      25A     -0.347542

  @DF-RHF Final Energy:  -277.25871785044063

   => Energetics <=

    Nuclear Repulsion Energy =            194.6434693443767117
    One-Electron Energy =                -764.3462404828574108
    Two-Electron Energy =                 292.4440532880400383
    Total Energy =                       -277.2587178504406324

  Dipole Moment: [D]
     X:    -0.9030      Y:     1.0979      Z:    -0.9202     Total:     1.6935

*** Psi4 exiting successfully. Buy a developer a beer!
