                               Psi4 1.4a2.dev37

  ==> Input File <==

--------------------------------------------------------------------------
# PSI4 file produced by CrystaLattE

# Psithon input for N-mer:      2mer-0+1
# Number of replicas:           6
# Priority index for input:     8.55220879e-03
# Minimum monomer separations:  2.588
# COM priority index for input: 2.53171032e-03
# Minimum COM separations:      3.883

memory 500 MB

molecule Dimer_0_1 {
  N           -1.68115516      -1.68115516      -1.68115516
  H           -2.60026315      -0.14736840      -1.13434212
  H           -1.13434212      -2.60026315      -0.14736840
  H           -0.14736840      -1.13434212      -2.60026315
--
  N            3.92851196       3.16646478      -0.91910799
  H            2.39472520       3.71327782       0.00000000
  H            4.84761994       4.70025154      -1.46592103
  H            3.38169892       2.24735679      -2.45289475
units = au
no_com
no_reorient
}

set {
  e_convergence 8
  scf_type df
  mp2_type df
  cc_type df
  freeze_core true
}

energy('scf/STO-3G', bsse_type = 'cp')

--------------------------------------------------------------------------

    Molecular point group: c1
  Charge       = 0
  Multiplicity = 1
  Basis Set: STO-3G
    Blend: STO-3G
  Basis Set: (STO-3G AUX)
    Blend: DEF2-SVP-JKFIT
  @DF-RHF Final Energy:   -55.44996535917190
    Total Energy =                        -55.4499653591718982
    Molecular point group: c1
  Basis Set: STO-3G
    Blend: STO-3G
  Basis Set: (STO-3G AUX)
    Blend: DEF2-SVP-JKFIT
  @DF-RHF Final Energy:   -55.45000116979102
    Total Energy =                        -55.4500011697910224
  Basis Set: STO-3G
    Blend: STO-3G
  Basis Set: (STO-3G AUX)
    Blend: DEF2-SVP-JKFIT
  @DF-RHF Final Energy:   -55.45002478765326
    Total Energy =                        -55.4500247876532555
  Multiplicity = 1
  Basis Set: STO-3G
    Blend: STO-3G
  Basis Set: (STO-3G AUX)
    Blend: DEF2-SVP-JKFIT
  @DF-RHF Final Energy:   -55.44996535934587
    Total Energy =                        -55.4499653593458746
    Molecular point group: c1

    Geometry (in Bohr), charge = 0, multiplicity = 1:

       Center              X                  Y                   Z               Mass
    ------------   -----------------  -----------------  -----------------  -----------------
         N           -1.681155160000    -1.681155160000    -1.681155160000    14.003074004430
         H           -2.600263150000    -0.147368400000    -1.134342120000     1.007825032230
         H           -1.134342120000    -2.600263150000    -0.147368400000     1.007825032230
         H           -0.147368400000    -1.134342120000    -2.600263150000     1.007825032230
         N            3.928511960000     3.166464780000    -0.919107990000    14.003074004430
         H            2.394725200000     3.713277820000     0.000000000000     1.007825032230
         H            4.847619940000     4.700251540000    -1.465921030000     1.007825032230
         H            3.381698920000     2.247356790000    -2.452894750000     1.007825032230

  Charge       = 0
  Multiplicity = 1
  Basis Set: STO-3G
    Blend: STO-3G
  Basis Set: (STO-3G AUX)
    Blend: DEF2-SVP-JKFIT

    Orbital Energies [Eh]
    ---------------------

    Doubly Occupied:

       1A    -15.309488     2A    -15.302774     3A     -1.109192
       4A     -1.102065     5A     -0.596255     6A     -0.593544
       7A     -0.586607     8A     -0.584627     9A     -0.360547
      10A     -0.353674

  @DF-RHF Final Energy:  -110.89959661386980

   => Energetics <=

    Nuclear Repulsion Energy =             38.1810274208381557
    One-Electron Energy =                -226.3637036476458491
    Two-Electron Energy =                  77.2830796129378967
    Total Energy =                       -110.8995966138698037

  Dipole Moment: [D]
     X:     0.0170      Y:     2.0070      Z:     0.0158     Total:     2.0072

*** Psi4 exiting successfully. Buy a developer a beer!
