                               Psi4 1.4a2.dev37

  ==> Input File <==

--------------------------------------------------------------------------
# PSI4 file produced by CrystaLattE

# Psithon input for N-mer:      3mer-0+1+5
# Number of replicas:           3
# Priority index for input:     6.25510905e-07
# Minimum monomer separations:  2.588  2.588  2.588
# COM priority index for input: 1.62271419e-08
# Minimum COM separations:      3.883  3.883  3.883

memory 500 MB

molecule Trimer_0_1_5 {
  N           -1.68115516      -1.68115516      -1.68115516
  H           -2.60026315      -0.14736840      -1.13434212
  H           -1.13434212      -2.60026315      -0.14736840
  H           -0.14736840      -1.13434212      -2.60026315
--
  N            3.92851196       3.16646478      -0.91910799
  H            2.39472520       3.71327782       0.00000000
  H            4.84761994       4.70025154      -1.46592103
  H            3.38169892       2.24735679      -2.45289475
--
  N           -0.91910799       3.92851196      -6.52877511
  H           -1.46592103       4.84761994      -4.99498835
  H           -2.45289475       3.38169892      -7.44788309
  H            0.00000000       2.39472520      -5.98196207
units = au
no_com
no_reorient
}

set {
  e_convergence 8
  scf_type df
  mp2_type df
  cc_type df
  freeze_core true
}

energy('scf/STO-3G', bsse_type = 'cp')

--------------------------------------------------------------------------

    Molecular point group: c1
  Charge       = 0
  Multiplicity = 1
  Basis Set: STO-3G
    Blend: STO-3G
  Basis Set: (STO-3G AUX)
    Blend: DEF2-SVP-JKFIT
  @DF-RHF Final Energy:   -55.45006043793158
    Total Energy =                        -55.4500604379315831
    Molecular point group: c1
  Basis Set: STO-3G
    Blend: STO-3G
  Basis Set: (STO-3G AUX)
    Blend: DEF2-SVP-JKFIT
  @DF-RHF Final Energy:   -55.45006043814991
    Total Energy =                        -55.4500604381499116
  Basis Set: STO-3G
    Blend: STO-3G
  Basis Set: (STO-3G AUX)
    Blend: DEF2-SVP-JKFIT
  @DF-RHF Final Energy:   -55.44996535934590
    Total Energy =                        -55.4499653593458959
  Basis Set: STO-3G
    Blend: STO-3G
  Basis Set: (STO-3G AUX)
    Blend: DEF2-SVP-JKFIT
  @DF-RHF Final Energy:   -55.44996535896156
    Total Energy =                        -55.4499653589615633
  @DF-RHF Final Energy:   -55.45006043831219
    Total Energy =                        -55.4500604383121924
  @DF-RHF Final Energy:   -55.44996535917188
    Total Energy =                        -55.4499653591718840
  Basis Set: STO-3G
    Blend: STO-3G
  Basis Set: (STO-3G AUX)
    Blend: DEF2-SVP-JKFIT
  @DF-RHF Final Energy:  -110.89969087227560
    Total Energy =                       -110.8996908722755990
  Basis Set: STO-3G
    Blend: STO-3G
  Basis Set: (STO-3G AUX)
    Blend: DEF2-SVP-JKFIT
  @DF-RHF Final Energy:  -110.89969087211868
    Total Energy =                       -110.8996908721186827
  Multiplicity = 1
  Basis Set: STO-3G
    Blend: STO-3G
  Basis Set: (STO-3G AUX)
    Blend: DEF2-SVP-JKFIT
  @DF-RHF Final Energy:  -110.89969087249754
    Total Energy =                       -110.8996908724975441
    Molecular point group: c1

    Geometry (in Bohr), charge = 0, multiplicity = 1:

       Center              X                  Y                   Z               Mass
    ------------   -----------------  -----------------  -----------------  -----------------
         N           -1.681155160000    -1.681155160000    -1.681155160000    14.003074004430
         H           -2.600263150000    -0.147368400000    -1.134342120000     1.007825032230
         H           -1.134342120000    -2.600263150000    -0.147368400000     1.007825032230
         H           -0.147368400000    -1.134342120000    -2.600263150000     1.007825032230
         N            3.928511960000     3.166464780000    -0.919107990000    14.003074004430
         H            2.394725200000     3.713277820000     0.000000000000     1.007825032230
         H            4.847619940000     4.700251540000    -1.465921030000     1.007825032230
         H            3.381698920000     2.247356790000    -2.452894750000     1.007825032230
         N           -0.919107990000     3.928511960000    -6.528775110000    14.003074004430
         H           -1.465921030000     4.847619940000    -4.994988350000     1.007825032230
         H           -2.452894750000     3.381698920000    -7.447883090000     1.007825032230
         H            0.000000000000     2.394725200000    -5.981962070000     1.007825032230

  Charge       = 0
  Multiplicity = 1
  Basis Set: STO-3G
    Blend: STO-3G
  Basis Set: (STO-3G AUX)
    Blend: DEF2-SVP-JKFIT

    Orbital Energies [Eh]
    ---------------------

    Doubly Occupied:

       1A    -15.311530     2A    -15.311530     3A    -15.311489
       4A     -1.113061     5A     -1.109931     6A     -1.109931
       7A     -0.605291     8A     -0.596257     9A     -0.595223
      10A     -0.595223    11A     -0.591010    12A     -0.591010
      13A     -0.363602    14A     -0.361617    15A     -0.361617

  @DF-RHF Final Energy:  -166.34893425512519

   => Energetics <=

    Nuclear Repulsion Energy =             77.8732086709316036
    One-Electron Energy =                -380.5876481958941895
    Two-Electron Energy =                 136.3655052698373993
    Total Energy =                       -166.3489342551251866

  Dipole Moment: [D]
     X:    -1.0014      Y:     1.0014      Z:     1.0014     Total:     1.7344

*** Psi4 exiting successfully. Buy a developer a beer!
