                               Psi4 1.4a2.dev37

  ==> Input File <==

--------------------------------------------------------------------------
# PSI4 file produced by CrystaLattE

# Psithon input for N-mer:      5mer-0+1+2+3+4
# Number of replicas:           3
# Priority index for input:     1.44182007e-22
# Minimum monomer separations:  2.428  2.428  2.428  2.588  2.588  2.588  2.588  2.588  3.945  5.012
# COM priority index for input: 3.24350205e-27
# Minimum COM separations:      3.418  3.418  3.418  3.883  3.883  3.883  3.883  3.883  5.131  6.434

memory 500 MB

molecule Pentamer_0_1_2_3_4 {
  N           -1.68115516      -1.68115516      -1.68115516
  H           -2.60026315      -0.14736840      -1.13434212
  H           -1.13434212      -2.60026315      -0.14736840
  H           -0.14736840      -1.13434212      -2.60026315
--
  N            3.92851196       3.16646478      -0.91910799
  H            2.39472520       3.71327782       0.00000000
  H            4.84761994       4.70025154      -1.46592103
  H            3.38169892       2.24735679      -2.45289475
--
  N            3.16646478      -0.91910799       3.92851196
  H            2.24735679      -2.45289475       3.38169892
  H            3.71327782       0.00000000       2.39472520
  H            4.70025154      -1.46592103       4.84761994
--
  N           -0.91910799       3.92851196       3.16646478
  H           -1.46592103       4.84761994       4.70025154
  H           -2.45289475       3.38169892       2.24735679
  H            0.00000000       2.39472520       3.71327782
--
  N            3.92851196      -6.52877511      -0.91910799
  H            2.39472520      -5.98196207       0.00000000
  H            4.84761994      -4.99498835      -1.46592103
  H            3.38169892      -7.44788309      -2.45289475
units = au
no_com
no_reorient
}

set {
  e_convergence 8
  scf_type df
  mp2_type df
  cc_type df
  freeze_core true
}

energy('scf/STO-3G', bsse_type = 'nocp')

--------------------------------------------------------------------------

    Molecular point group: c1
  Charge       = 0
  Multiplicity = 1
  Basis Set: STO-3G
    Blend: STO-3G
  Basis Set: (STO-3G AUX)
    Blend: DEF2-SVP-JKFIT
  @DF-RHF Final Energy:   -55.44996535915967
    Total Energy =                        -55.4499653591596626
    Molecular point group: c1
  Basis Set: STO-3G
    Blend: STO-3G
  Basis Set: (STO-3G AUX)
    Blend: DEF2-SVP-JKFIT
  @DF-RHF Final Energy:   -55.44996535934587
    Total Energy =                        -55.4499653593458675
  Basis Set: STO-3G
    Blend: STO-3G
  Basis Set: (STO-3G AUX)
    Blend: DEF2-SVP-JKFIT
  @DF-RHF Final Energy:   -55.44996535917009
    Total Energy =                        -55.4499653591700934
  Basis Set: STO-3G
    Blend: STO-3G
  Basis Set: (STO-3G AUX)
    Blend: DEF2-SVP-JKFIT
  @DF-RHF Final Energy:   -55.44996535896059
    Total Energy =                        -55.4499653589605970
  @DF-RHF Final Energy:   -55.44996535917183
    Total Energy =                        -55.4499653591718271
  @DF-RHF Final Energy:  -110.89959661386973
    Total Energy =                       -110.8995966138697327
  @DF-RHF Final Energy:  -110.89959661387141
    Total Energy =                       -110.8995966138714095
  @DF-RHF Final Energy:  -110.90321507804143
    Total Energy =                       -110.9032150780414270
  @DF-RHF Final Energy:  -110.89998955899128
    Total Energy =                       -110.8999895589912796
  @DF-RHF Final Energy:  -110.90321507802169
    Total Energy =                       -110.9032150780216881
  @DF-RHF Final Energy:  -110.90321507801455
    Total Energy =                       -110.9032150780145543
  @DF-RHF Final Energy:  -110.89995246936266
    Total Energy =                       -110.8999524693626597
  @DF-RHF Final Energy:  -110.89959661386375
    Total Energy =                       -110.8995966138637499
  @DF-RHF Final Energy:  -110.89959661347881
    Total Energy =                       -110.8995966134788063
  @DF-RHF Final Energy:  -110.89959661365899
    Total Energy =                       -110.8995966136589857
  @DF-RHF Final Energy:  -166.34893425515457
    Total Energy =                       -166.3489342551545747
  @DF-RHF Final Energy:  -166.35286459254419
    Total Energy =                       -166.3528645925441936
  @DF-RHF Final Energy:  -166.34927478193308
    Total Energy =                       -166.3492747819330759
  @DF-RHF Final Energy:  -166.35249854827836
    Total Energy =                       -166.3524985482783620
  @DF-RHF Final Energy:  -166.36040575159933
    Total Energy =                       -166.3604057515993304
  @DF-RHF Final Energy:  -166.35328765623498
    Total Energy =                       -166.3532876562349827
  @DF-RHF Final Energy:  -166.35249854828734
    Total Energy =                       -166.3524985482873433
  @DF-RHF Final Energy:  -166.35286879981970
    Total Energy =                       -166.3528687998197029
  @DF-RHF Final Energy:  -166.35249854837127
    Total Energy =                       -166.3524985483712726
  @DF-RHF Final Energy:  -166.34924986272134
    Total Energy =                       -166.3492498627213365
  @DF-RHF Final Energy:  -221.81010455625642
    Total Energy =                       -221.8101045562564195
  @DF-RHF Final Energy:  -221.80932530830302
    Total Energy =                       -221.8093253083030163
  Basis Set: STO-3G
    Blend: STO-3G
  Basis Set: (STO-3G AUX)
    Blend: DEF2-SVP-JKFIT
  @DF-RHF Final Energy:  -221.80186083898110
    Total Energy =                       -221.8018608389810993
  Basis Set: STO-3G
    Blend: STO-3G
  Basis Set: (STO-3G AUX)
    Blend: DEF2-SVP-JKFIT
  @DF-RHF Final Energy:  -221.80184021981808
    Total Energy =                       -221.8018402198180752
  Multiplicity = 1
  Basis Set: STO-3G
    Blend: STO-3G
  Basis Set: (STO-3G AUX)
    Blend: DEF2-SVP-JKFIT
  @DF-RHF Final Energy:  -221.80222440744870
    Total Energy =                       -221.8022244074487048
    Molecular point group: c1

    Geometry (in Bohr), charge = 0, multiplicity = 1:

       Center              X                  Y                   Z               Mass
    ------------   -----------------  -----------------  -----------------  -----------------
         N           -1.681155160000    -1.681155160000    -1.681155160000    14.003074004430
         H           -2.600263150000    -0.147368400000    -1.134342120000     1.007825032230
         H           -1.134342120000    -2.600263150000    -0.147368400000     1.007825032230
         H           -0.147368400000    -1.134342120000    -2.600263150000     1.007825032230
         N            3.928511960000     3.166464780000    -0.919107990000    14.003074004430
         H            2.394725200000     3.713277820000     0.000000000000     1.007825032230
         H            4.847619940000     4.700251540000    -1.465921030000     1.007825032230
         H            3.381698920000     2.247356790000    -2.452894750000     1.007825032230
         N            3.166464780000    -0.919107990000     3.928511960000    14.003074004430
         H            2.247356790000    -2.452894750000     3.381698920000     1.007825032230
         H            3.713277820000     0.000000000000     2.394725200000     1.007825032230
         H            4.700251540000    -1.465921030000     4.847619940000     1.007825032230
         N           -0.919107990000     3.928511960000     3.166464780000    14.003074004430
         H           -1.465921030000     4.847619940000     4.700251540000     1.007825032230
         H           -2.452894750000     3.381698920000     2.247356790000     1.007825032230
         H            0.000000000000     2.394725200000     3.713277820000     1.007825032230
         N            3.928511960000    -6.528775110000    -0.919107990000    14.003074004430
         H            2.394725200000    -5.981962070000     0.000000000000     1.007825032230
         H            4.847619940000    -4.994988350000    -1.465921030000     1.007825032230
         H            3.381698920000    -7.447883090000    -2.452894750000     1.007825032230

  Charge       = 0
  Multiplicity = 1
  Basis Set: STO-3G
    Blend: STO-3G
  Basis Set: (STO-3G AUX)
    Blend: DEF2-SVP-JKFIT

    Orbital Energies [Eh]
    ---------------------

    Doubly Occupied:

       1A    -15.315990     2A    -15.307605     3A    -15.299108
       4A    -15.297525     5A    -15.297202     6A     -1.115790
       7A     -1.107144     8A     -1.105276     9A     -1.098792
      10A     -1.097615    11A     -0.605140    12A     -0.602375
      13A     -0.601532    14A     -0.591848    15A     -0.591049
      16A     -0.587513    17A     -0.585651    18A     -0.584328
      19A     -0.574197    20A     -0.573283    21A     -0.366378
      22A     -0.359574    23A     -0.358793    24A     -0.357824
      25A     -0.347542

  @DF-RHF Final Energy:  -277.25871785012998

   => Energetics <=

    Nuclear Repulsion Energy =            194.6434693443767117
    One-Electron Energy =                -764.3462361809481536
    Two-Electron Energy =                 292.4440489864414303
    Total Energy =                       -277.2587178501299832

  Dipole Moment: [D]
     X:    -0.9030      Y:     1.0979      Z:    -0.9202     Total:     1.6935

*** Psi4 exiting successfully. Buy a developer a beer!
