                               Psi4 1.4a2.dev37

  ==> Input File <==

--------------------------------------------------------------------------
# PSI4 file produced by CrystaLattE

# Psithon input for N-mer:      5mer-0+1+2+3+4
# Number of replicas:           3
# Priority index for input:     1.44182007e-22
# Minimum monomer separations:  2.428  2.428  2.428  2.588  2.588  2.588  2.588  2.588  3.945  5.012
# COM priority index for input: 3.24350205e-27
# Minimum COM separations:      3.418  3.418  3.418  3.883  3.883  3.883  3.883  3.883  5.131  6.434

memory 500 MB

molecule Pentamer_0_1_2_3_4 {
  N           -1.68115516      -1.68115516      -1.68115516
  H           -2.60026315      -0.14736840      -1.13434212
  H           -1.13434212      -2.60026315      -0.14736840
  H           -0.14736840      -1.13434212      -2.60026315
--
  N            3.92851196       3.16646478      -0.91910799
  H            2.39472520       3.71327782       0.00000000
  H            4.84761994       4.70025154      -1.46592103
  H            3.38169892       2.24735679      -2.45289475
--
  N            3.16646478      -0.91910799       3.92851196
  H            2.24735679      -2.45289475       3.38169892
  H            3.71327782       0.00000000       2.39472520
  H            4.70025154      -1.46592103       4.84761994
--
  N           -0.91910799       3.92851196       3.16646478
  H           -1.46592103       4.84761994       4.70025154
  H           -2.45289475       3.38169892       2.24735679
  H            0.00000000       2.39472520       3.71327782
--
  N            3.92851196      -6.52877511      -0.91910799
  H            2.39472520      -5.98196207       0.00000000
  H            4.84761994      -4.99498835      -1.46592103
  H            3.38169892      -7.44788309      -2.45289475
units = au
no_com
no_reorient
}

set {
  e_convergence 8
  scf_type df
  mp2_type df
  cc_type df
  freeze_core true
}

energy('scf/STO-3G', bsse_type = 'cp')

--------------------------------------------------------------------------

    Molecular point group: c1
  Charge       = 0
  Multiplicity = 1
  Basis Set: STO-3G
    Blend: STO-3G
  Basis Set: (STO-3G AUX)
    Blend: DEF2-SVP-JKFIT
  @DF-RHF Final Energy:   -55.44996535934585
    Total Energy =                        -55.4499653593458390
    Molecular point group: c1
  Basis Set: STO-3G
    Blend: STO-3G
  Basis Set: (STO-3G AUX)
    Blend: DEF2-SVP-JKFIT
  @DF-RHF Final Energy:   -55.45018014289448
    Total Energy =                        -55.4501801428944816
  Basis Set: STO-3G
    Blend: STO-3G
  Basis Set: (STO-3G AUX)
    Blend: DEF2-SVP-JKFIT
  @DF-RHF Final Energy:   -55.44996535917008
    Total Energy =                        -55.4499653591700792
  Basis Set: STO-3G
    Blend: STO-3G
  Basis Set: (STO-3G AUX)
    Blend: DEF2-SVP-JKFIT
  @DF-RHF Final Energy:   -55.44996535917190
    Total Energy =                        -55.4499653591718982
  @DF-RHF Final Energy:   -55.45146403590870
    Total Energy =                        -55.4514640359086997
  @DF-RHF Final Energy:   -55.45146465289147
    Total Energy =                        -55.4514646528914668
  @DF-RHF Final Energy:   -55.44996535896061
    Total Energy =                        -55.4499653589606112
  @DF-RHF Final Energy:   -55.45152293344813
    Total Energy =                        -55.4515229334481319
  @DF-RHF Final Energy:   -55.44996535915969
    Total Energy =                        -55.4499653591596910
  @DF-RHF Final Energy:   -55.45006064122349
    Total Energy =                        -55.4500606412234873
  @DF-RHF Final Energy:  -110.90121842813700
    Total Energy =                       -110.9012184281369997
  @DF-RHF Final Energy:  -110.89980858512256
    Total Energy =                       -110.8998085851225568
  @DF-RHF Final Energy:  -110.90485529374632
    Total Energy =                       -110.9048552937463228
  @DF-RHF Final Energy:  -110.90127686068243
    Total Energy =                       -110.9012768606824295
  @DF-RHF Final Energy:  -110.90479787966470
    Total Energy =                       -110.9047978796646987
  @DF-RHF Final Energy:  -110.90155302605176
    Total Energy =                       -110.9015530260517579
  @DF-RHF Final Energy:  -110.90485989002582
    Total Energy =                       -110.9048598900258185
  @DF-RHF Final Energy:  -110.90121771590974
    Total Energy =                       -110.9012177159097376
  @DF-RHF Final Energy:  -110.90158537472858
    Total Energy =                       -110.9015853747285831
  @DF-RHF Final Energy:  -110.90115900438340
    Total Energy =                       -110.9011590043834019
  @DF-RHF Final Energy:  -166.35451555337798
    Total Energy =                       -166.3545155533779791
  @DF-RHF Final Energy:  -166.35052444798001
    Total Energy =                       -166.3505244479800069
  @DF-RHF Final Energy:  -166.35416335910224
    Total Energy =                       -166.3541633591022446
  @DF-RHF Final Energy:  -166.35089405396775
    Total Energy =                       -166.3508940539677496
  @DF-RHF Final Energy:  -166.35496966438876
    Total Energy =                       -166.3549696643887614
  @DF-RHF Final Energy:  -166.35416630232089
    Total Energy =                       -166.3541663023208912
  @DF-RHF Final Energy:  -166.35087556159448
    Total Energy =                       -166.3508755615944779
  @DF-RHF Final Energy:  -166.36058126147617
    Total Energy =                       -166.3605812614761703
  @DF-RHF Final Energy:  -166.35451044087705
    Total Energy =                       -166.3545104408770499
  @DF-RHF Final Energy:  -166.35410498098298
    Total Energy =                       -166.3541049809829815
  @DF-RHF Final Energy:  -221.81027953153909
    Total Energy =                       -221.8102795315390949
  @DF-RHF Final Energy:  -221.80942008885387
    Total Energy =                       -221.8094200888538694
  Basis Set: STO-3G
    Blend: STO-3G
  Basis Set: (STO-3G AUX)
    Blend: DEF2-SVP-JKFIT
  @DF-RHF Final Energy:  -221.80343718191881
    Total Energy =                       -221.8034371819188095
  Basis Set: STO-3G
    Blend: STO-3G
  Basis Set: (STO-3G AUX)
    Blend: DEF2-SVP-JKFIT
  @DF-RHF Final Energy:  -221.80341500012813
    Total Energy =                       -221.8034150001281262
  Multiplicity = 1
  Basis Set: STO-3G
    Blend: STO-3G
  Basis Set: (STO-3G AUX)
    Blend: DEF2-SVP-JKFIT
  @DF-RHF Final Energy:  -221.80383201295118
    Total Energy =                       -221.8038320129511760
    Molecular point group: c1

    Geometry (in Bohr), charge = 0, multiplicity = 1:

       Center              X                  Y                   Z               Mass
    ------------   -----------------  -----------------  -----------------  -----------------
         N           -1.681155160000    -1.681155160000    -1.681155160000    14.003074004430
         H           -2.600263150000    -0.147368400000    -1.134342120000     1.007825032230
         H           -1.134342120000    -2.600263150000    -0.147368400000     1.007825032230
         H           -0.147368400000    -1.134342120000    -2.600263150000     1.007825032230
         N            3.928511960000     3.166464780000    -0.919107990000    14.003074004430
         H            2.394725200000     3.713277820000     0.000000000000     1.007825032230
         H            4.847619940000     4.700251540000    -1.465921030000     1.007825032230
         H            3.381698920000     2.247356790000    -2.452894750000     1.007825032230
         N            3.166464780000    -0.919107990000     3.928511960000    14.003074004430
         H            2.247356790000    -2.452894750000     3.381698920000     1.007825032230
         H            3.713277820000     0.000000000000     2.394725200000     1.007825032230
         H            4.700251540000    -1.465921030000     4.847619940000     1.007825032230
         N           -0.919107990000     3.928511960000     3.166464780000    14.003074004430
         H           -1.465921030000     4.847619940000     4.700251540000     1.007825032230
         H           -2.452894750000     3.381698920000     2.247356790000     1.007825032230
         H            0.000000000000     2.394725200000     3.713277820000     1.007825032230
         N            3.928511960000    -6.528775110000    -0.919107990000    14.003074004430
         H            2.394725200000    -5.981962070000     0.000000000000     1.007825032230
         H            4.847619940000    -4.994988350000    -1.465921030000     1.007825032230
         H            3.381698920000    -7.447883090000    -2.452894750000     1.007825032230

  Charge       = 0
  Multiplicity = 1
  Basis Set: STO-3G
    Blend: STO-3G
  Basis Set: (STO-3G AUX)
    Blend: DEF2-SVP-JKFIT

    Orbital Energies [Eh]
    ---------------------

    Doubly Occupied:

       1A    -15.315990     2A    -15.307605     3A    -15.299108
       4A    -15.297525     5A    -15.297202     6A     -1.115790
       7A     -1.107144     8A     -1.105276     9A     -1.098792
      10A     -1.097615    11A     -0.605140    12A     -0.602375
      13A     -0.601532    14A     -0.591848    15A     -0.591049
      16A     -0.587513    17A     -0.585651    18A     -0.584328
      19A     -0.574197    20A     -0.573283    21A     -0.366378
      22A     -0.359574    23A     -0.358793    24A     -0.357824
      25A     -0.347542

  @DF-RHF Final Energy:  -277.25871785012998

   => Energetics <=

    Nuclear Repulsion Energy =            194.6434693443767117
    One-Electron Energy =                -764.3462361809478125
    Two-Electron Energy =                 292.4440489864410893
    Total Energy =                       -277.2587178501299832

  Dipole Moment: [D]
     X:    -0.9030      Y:     1.0979      Z:    -0.9202     Total:     1.6935

*** Psi4 exiting successfully. Buy a developer a beer!
